# vtk DataFile Version 4.0
vtk output
ASCII
DATASET UNSTRUCTURED_GRID
POINTS 2292 float
-3.3000001e-01 2.3000000e-01 1.5000001e-01 
-3.2022592e-01 2.3000000e-01 1.5000001e-01 
-3.2959926e-01 2.1980032e-01 1.5000001e-01 
-3.3000001e-01 2.3000000e-01 1.3766479e-01 
-3.1513196e-01 2.1941945e-01 1.5000001e-01 
-3.1513196e-01 2.3000000e-01 1.3941945e-01 
-3.1003797e-01 2.3000000e-01 1.5000001e-01 
-3.2839948e-01 2.0966353e-01 1.5000001e-01 
-3.2916763e-01 2.1531247e-01 1.3357294e-01 
-3.1700656e-01 2.0672596e-01 1.5000001e-01 
-3.3000001e-01 2.3000000e-01 1.2224095e-01 
-3.2750273e-01 2.0464146e-01 1.3895091e-01 
-3.0979449e-01 2.1832360e-01 1.3214862e-01 
-2.9976296e-01 2.3000000e-01 1.5000001e-01 
-3.0251393e-01 2.3000000e-01 1.3724451e-01 
-3.2640809e-01 1.9965211e-01 1.5000001e-01 
-3.1015068e-01 2.3000000e-01 1.2415913e-01 
-3.1509244e-01 2.0318303e-01 1.3509549e-01 
-2.9892233e-01 2.1319242e-01 1.5000001e-01 
-3.1481981e-01 1.9761747e-01 1.5000001e-01 
-3.2539150e-01 1.9569302e-01 1.4019629e-01 
-3.1604785e-01 2.0947991e-01 1.1925406e-01 
-2.8999999e-01 2.3000000e-01 1.5000001e-01 
-3.2895601e-01 2.1355774e-01 1.1306911e-01 
-3.1444788e-01 1.9341704e-01 1.4166841e-01 
-3.2363734e-01 1.8982778e-01 1.5000001e-01 
-3.2640472e-01 1.9963804e-01 1.2308473e-01 
-3.0115271e-01 2.0115629e-01 1.5000001e-01 
-3.0166581e-01 2.0991260e-01 1.2772837e-01 
-2.8943411e-01 2.1992320e-01 1.5000001e-01 
-2.8999999e-01 2.3000000e-01 1.3768360e-01 
-2.9873130e-01 2.1887256e-01 1.2187483e-01 
-3.1192514e-01 1.8870863e-01 1.5000001e-01 
-2.8872949e-01 2.1493094e-01 1.3905872e-01 
-3.3000001e-01 2.3000000e-01 1.0389727e-01 
-2.8774351e-01 2.0997311e-01 1.5000001e-01 
-3.2196450e-01 1.8500379e-01 1.3894582e-01 
-3.1208250e-01 1.9561113e-01 1.2312642e-01 
-2.8999999e-01 2.3000000e-01 1.2220488e-01 
-2.9446238e-01 1.9653527e-01 1.4290576e-01 
-3.1289464e-01 2.2518840e-01 1.0335004e-01 
-3.2010433e-01 1.8025115e-01 1.5000001e-01 
-2.8648251e-01 2.0508467e-01 1.3908413e-01 
-2.9656273e-01 1.9000241e-01 1.5000001e-01 
-3.0049533e-01 2.0493023e-01 1.1454406e-01 
-3.0482483e-01 1.8569355e-01 1.3703163e-01 
-3.1097603e-01 2.1146932e-01 1.0364468e-01 
-2.8773671e-01 2.0994335e-01 1.2337358e-01 
-2.8494951e-01 2.0027488e-01 1.5000001e-01 
-3.0834043e-01 1.8005438e-01 1.5000001e-01 
-2.9291257e-01 2.0245014e-01 1.1982420e-01 
-3.1846678e-01 1.7646852e-01 1.4007114e-01 
-3.0764920e-01 1.7866920e-01 1.4074820e-01 
-3.2013869e-01 1.8033418e-01 1.2301441e-01 
-2.8948691e-01 1.9546689e-01 1.2858038e-01 
-3.2587421e-01 1.9750866e-01 1.0262766e-01 
-3.2902268e-01 2.1408930e-01 9.3161412e-02 
-3.1005022e-01 2.3000000e-01 9.4123319e-02 
-2.8277957e-01 1.9467944e-01 1.4013284e-01 
-2.8956729e-01 1.8594603e-01 1.4233300e-01 
-3.1583086e-01 1.7098123e-01 1.5000001e-01 
-2.8999999e-01 2.3000000e-01 1.0376693e-01 
-2.8108719e-01 1.9095047e-01 1.5000001e-01 
-2.9192135e-01 1.7886981e-01 1.5000001e-01 
-3.0566823e-01 1.8557455e-01 1.1125257e-01 
-3.0408776e-01 1.7170805e-01 1.5000001e-01 
-2.9409245e-01 1.8686911e-01 1.1688749e-01 
-3.3000001e-01 2.3000000e-01 8.3611883e-02 
-3.1333062e-01 1.6631193e-01 1.3839544e-01 
-2.8054678e-01 1.8984762e-01 1.2646526e-01 
-2.7867925e-01 1.8630134e-01 1.3854522e-01 
-2.8860578e-01 1.7783616e-01 1.3378845e-01 
-3.1094754e-01 2.2183405e-01 8.3727360e-02 
-3.0339852e-01 1.6982168e-01 1.2775949e-01 
-3.0213130e-01 2.1770041e-01 8.7432668e-02 
-3.0311102e-01 1.6552749e-01 1.4171912e-01 
-3.2073689e-01 2.1299580e-01 8.2342058e-02 
-3.1084323e-01 1.6207519e-01 1.5000001e-01 
-2.8864664e-01 2.1445087e-01 9.4650969e-02 
-2.8445858e-01 1.9890743e-01 1.0552534e-01 
-2.7620518e-01 1.8211712e-01 1.5000001e-01 
-2.9919335e-01 1.6372111e-01 1.5000001e-01 
-3.2601598e-01 1.9806299e-01 8.2626805e-02 
-2.8183341e-01 1.7193609e-01 1.5000001e-01 
-3.1670326e-01 1.7272568e-01 1.0127340e-01 
-3.0812073e-01 1.5782030e-01 1.3792235e-01 
-2.8848341e-01 1.6571303e-01 1.4268254e-01 
-3.0207080e-01 2.0901792e-01 8.0923222e-02 
-3.0463850e-01 1.6995333e-01 1.0802369e-01 
-2.8999999e-01 2.3000000e-01 8.3463810e-02 
-2.9895061e-01 1.8706848e-01 9.3171932e-02 
-2.7344224e-01 1.7797847e-01 1.3822471e-01 
-2.9876652e-01 1.5735987e-01 1.3793756e-01 
-3.0517220e-01 1.5358792e-01 1.5000001e-01 
-3.1472573e-01 1.8774016e-01 8.2899578e-02 
-3.0862203e-01 2.2301097e-01 7.2422855e-02 
-3.0801263e-01 1.5765865e-01 1.2130406e-01 
-3.2053468e-01 2.2136708e-01 6.9634534e-02 
-2.7036482e-01 1.7388591e-01 1.5000001e-01 
-2.8707799e-01 1.6767450e-01 1.1814857e-01 
-2.9368740e-01 1.5614280e-01 1.5000001e-01 
-2.8037348e-01 1.6568656e-01 1.3331129e-01 
-3.1384030e-01 2.0238480e-01 7.3349498e-02 
-3.3000001e-01 2.3000000e-01 6.6302046e-02 
-3.2011983e-01 1.8028858e-01 8.3318822e-02 
-2.8412625e-01 1.9801918e-01 8.5547976e-02 
-3.2839093e-01 2.0960957e-01 6.6961236e-02 
-3.0211756e-01 1.4955121e-01 1.3838275e-01 
-2.7797571e-01 1.6158202e-01 1.5000001e-01 
-2.8977165e-01 1.5452988e-01 1.3828704e-01 
-2.9545444e-01 1.5476784e-01 1.2512764e-01 
-3.1015068e-01 2.3000000e-01 6.5840863e-02 
-2.6992995e-01 1.7334487e-01 1.2252384e-01 
-2.8848806e-01 2.1357256e-01 7.4820355e-02 
-2.6714885e-01 1.7007478e-01 1.3884772e-01 
-2.9795086e-01 1.9386622e-01 7.6502644e-02 
-2.7421451e-01 1.7908625e-01 1.0431241e-01 
-3.0766866e-01 1.5714768e-01 1.0252115e-01 
-3.0389559e-01 2.0804694e-01 6.6812523e-02 
-2.9885277e-01 1.4557175e-01 1.5000001e-01 
-2.9220781e-01 1.7010602e-01 9.2975892e-02 
-2.8760383e-01 1.4901985e-01 1.5000001e-01 
-2.6363960e-01 1.6636039e-01 1.5000001e-01 
-2.7079213e-01 1.5926088e-01 1.4260085e-01 
-2.8999999e-01 2.3000000e-01 6.6176899e-02 
-3.2424563e-01 1.9175050e-01 6.4770482e-02 
-2.7674961e-01 1.5667112e-01 1.2650447e-01 
-3.0124694e-01 1.7652458e-01 7.8509554e-02 
-2.8474602e-01 1.8300661e-01 8.2458690e-02 
-3.0713582e-01 1.8771110e-01 6.8707980e-02 
-2.9449436e-01 1.5936087e-01 9.7822085e-02 
-3.1182176e-01 1.6369845e-01 8.4636509e-02 
-2.9548675e-01 1.4178276e-01 1.3882054e-01 
-3.0926552e-01 2.1681209e-01 5.6272436e-02 
-2.7631143e-01 1.6454495e-01 1.0234362e-01 
-2.6000968e-01 1.6292661e-01 1.3935205e-01 
-2.7072522e-01 1.5214707e-01 1.5000001e-01 
-3.3000001e-01 2.3000000e-01 5.1849142e-02 
-2.8470203e-01 1.5181077e-01 1.1073287e-01 
-2.7421451e-01 1.7908625e-01 8.5687585e-02 
-2.8497028e-01 2.0033434e-01 6.6638879e-02 
-2.9192388e-01 1.3807611e-01 1.5000001e-01 
-2.9408008e-01 1.4028412e-01 1.2523377e-01 
-3.2909974e-01 2.1472730e-01 5.1094692e-02 
-2.8098014e-01 1.4239617e-01 1.5000001e-01 
-3.1513196e-01 2.3000000e-01 5.0580554e-02 
-3.0251393e-01 2.3000000e-01 5.2395888e-02 
-2.5611410e-01 1.5963517e-01 1.5000001e-01 
-3.2750273e-01 2.0464146e-01 5.1049091e-02 
-2.9732674e-01 1.4381702e-01 1.0549390e-01 
-2.5786453e-01 1.6106746e-01 1.2615721e-01 
-3.0741808e-01 2.0569554e-01 5.2913915e-02 
-2.7518752e-01 1.4361861e-01 1.3818376e-01 
-2.6242864e-01 1.6517204e-01 1.0703400e-01 
-3.1897402e-01 2.0231266e-01 5.0812148e-02 
-2.8882194e-01 2.1548577e-01 5.5761285e-02 
-2.6392177e-01 1.5111992e-01 1.3519159e-01 
-2.8827211e-01 1.3456398e-01 1.3916987e-01 
-3.2511908e-01 1.9471242e-01 5.1037069e-02 
-3.1581393e-01 1.7094803e-01 6.3250452e-02 
-2.8999999e-01 2.3000000e-01 5.1777005e-02 
-2.5211462e-01 1.5662380e-01 1.3976513e-01 
-2.8816649e-01 1.6267867e-01 7.7368103e-02 
-3.1679410e-01 1.9205129e-01 4.9801871e-02 
-2.8442824e-01 1.3114722e-01 1.5000001e-01 
-2.5806391e-01 1.4816658e-01 1.5000001e-01 
-3.2196450e-01 1.8500379e-01 5.1054191e-02 
-2.7385721e-01 1.3631259e-01 1.5000001e-01 
-2.6126188e-01 1.5263386e-01 1.1480499e-01 
-3.3000001e-01 2.3000000e-01 3.9999999e-02 
-3.2022592e-01 2.3000000e-01 3.9999999e-02 
-3.2959926e-01 2.1980032e-01 3.9999999e-02 
-2.6866496e-01 1.4180468e-01 1.2206174e-01 
-2.8648251e-01 2.0508467e-01 5.0915867e-02 
-2.9316863e-01 1.7721388e-01 5.9231233e-02 
-3.1513196e-01 2.1941945e-01 3.9999999e-02 
-3.1003797e-01 2.3000000e-01 3.9999999e-02 
-3.2839948e-01 2.0966353e-01 3.9999999e-02 
-2.8431693e-01 1.4458171e-01 9.3730062e-02 
-2.4788289e-01 1.5379483e-01 1.5000001e-01 
-2.9732674e-01 1.4381702e-01 8.4506094e-02 
-3.1700656e-01 2.0672596e-01 3.9999999e-02 
-2.9462194e-01 1.9791605e-01 4.7306526e-02 
-3.0330896e-01 1.7516571e-01 5.4542687e-02 
-2.7018258e-01 1.3477273e-01 1.3510144e-01 
-2.8050944e-01 1.2793027e-01 1.3947697e-01 
-2.9976296e-01 2.3000000e-01 3.9999999e-02 
-3.2640809e-01 1.9965211e-01 3.9999999e-02 
-2.6113418e-01 1.5406667e-01 9.9387132e-02 
-3.1127688e-01 1.8174483e-01 4.7915012e-02 
-2.7563766e-01 1.4923491e-01 8.9496717e-02 
-3.0487451e-01 1.5317982e-01 6.8540394e-02 
-3.1765124e-01 1.7469914e-01 5.0000984e-02 
-2.6242864e-01 1.6517204e-01 8.2966000e-02 
-2.7212742e-01 1.4093079e-01 1.0535167e-01 
-2.8351372e-01 1.9645213e-01 4.9801905e-02 
-2.9892233e-01 2.1319242e-01 3.9999999e-02 
-3.1481981e-01 1.9761747e-01 3.9999999e-02 
-2.7221370e-01 1.7628609e-01 6.4974628e-02 
-2.8951529e-01 1.8608059e-01 5.0173044e-02 
-2.8725299e-01 1.5052415e-01 7.6456815e-02 
-2.8999999e-01 2.3000000e-01 3.9999999e-02 
-3.2363734e-01 1.8982778e-01 3.9999999e-02 
-3.0115271e-01 2.0115629e-01 3.9999999e-02 
-2.4356532e-01 1.5124683e-01 1.4009312e-01 
-2.8943411e-01 2.1992320e-01 3.9999999e-02 
-2.6627889e-01 1.3080664e-01 1.5000001e-01 
-2.8355184e-01 1.3040538e-01 1.0716549e-01 
-2.7641207e-01 1.2482779e-01 1.5000001e-01 
-2.5839370e-01 1.3698389e-01 1.3689989e-01 
-2.9357299e-01 1.6053921e-01 6.1557382e-02 
-2.7831578e-01 1.2623759e-01 1.2629975e-01 
-3.1333062e-01 1.6631193e-01 5.1604554e-02 
-3.1192514e-01 1.8870863e-01 3.9999999e-02 
-2.7867925e-01 1.8630134e-01 5.1454779e-02 
-2.8774351e-01 2.0997311e-01 3.9999999e-02 
-2.7602735e-01 1.5764405e-01 6.9591820e-02 
-2.4648438e-01 1.5293378e-01 1.0830743e-01 
-2.5113019e-01 1.3807864e-01 1.5000001e-01 
-3.2010433e-01 1.8025115e-01 3.9999999e-02 
-3.0357057e-01 1.6690873e-01 4.9866688e-02 
-2.9656273e-01 1.9000241e-01 3.9999999e-02 
-2.4105550e-01 1.4990976e-01 1.2727024e-01 
-2.3904954e-01 1.4891280e-01 1.5000001e-01 
-2.8494951e-01 2.0027488e-01 3.9999999e-02 
[...]
POINT_DATA 2292
FIELD FieldData 12
DISPLACEMENT 3 2292  float
2.0000001e-03 0.0000000e+00 0.0000000e+00 
2.0000001e-03 0.0000000e+00 0.0000000e+00 
2.0250683e-03 3.1472080e-06 2.8970337e-06 
2.0000001e-03 0.0000000e+00 0.0000000e+00 
2.0407091e-03 2.3109944e-05 1.4420385e-05 
2.0000001e-03 0.0000000e+00 0.0000000e+00 
2.0000001e-03 0.0000000e+00 0.0000000e+00 
2.0344448e-03 9.6322829e-06 1.2707445e-05 
2.0331612e-03 -1.4712558e-05 1.0378719e-05 
2.0327957e-03 9.8920918e-06 8.6585651e-06 
2.0000001e-03 0.0000000e+00 0.0000000e+00 
2.0287007e-03 -1.4994212e-06 1.3880559e-05 
2.0473723e-03 4.0674073e-05 1.7157437e-05 
2.0000001e-03 0.0000000e+00 0.0000000e+00 
2.0000001e-03 0.0000000e+00 0.0000000e+00 
2.0324965e-03 5.3624995e-06 1.0142955e-05 
2.0000001e-03 0.0000000e+00 0.0000000e+00 
2.0222676e-03 8.2970373e-06 5.0001581e-06 
2.0179269e-03 -4.2599866e-05 1.2979493e-06 
2.0270662e-03 2.9892265e-06 3.8582302e-06 
2.0279754e-03 7.7116056e-07 7.9820929e-06 
2.0470510e-03 8.8482020e-06 1.7744429e-05 
2.0000001e-03 0.0000000e+00 0.0000000e+00 
2.0353750e-03 6.6006044e-07 4.0742325e-06 
2.0232357e-03 1.0209505e-06 2.1573542e-06 
2.0280548e-03 1.1404915e-06 6.7178362e-06 
2.0262990e-03 7.4579348e-06 5.5662886e-06 
2.0219071e-03 -2.0288864e-05 -1.5778983e-06 
2.0034402e-03 6.8896861e-06 -1.0930449e-05 
1.9496791e-03 4.4563658e-05 -3.6441560e-07 
2.0000001e-03 0.0000000e+00 0.0000000e+00 
2.0294057e-03 5.3675874e-05 7.1589943e-07 
2.0252024e-03 -4.2221347e-07 1.8474944e-06 
1.9902689e-03 2.4413219e-05 1.4085898e-06 
2.0000001e-03 0.0000000e+00 0.0000000e+00 
2.0179106e-03 6.9721978e-06 -5.0202802e-06 
2.0227635e-03 5.9074682e-07 2.9026489e-06 
2.0160624e-03 -5.0420749e-06 -8.5964979e-07 
2.0000001e-03 0.0000000e+00 0.0000000e+00 
2.0231779e-03 5.4795458e-07 -9.9356221e-06 
1.9994492e-03 7.3793308e-06 -2.7138974e-05 
2.0255365e-03 -2.8440280e-07 2.4951166e-06 
2.0137695e-03 1.7024277e-05 -1.2504466e-05 
2.0272438e-03 -2.6024973e-06 -6.5853874e-06 
2.0106575e-03 -4.0814839e-06 -3.5127632e-06 
2.0216515e-03 7.0170370e-07 -1.5928989e-06 
1.9924999e-03 9.6239382e-06 8.9336136e-06 
1.9928294e-03 1.2092865e-05 -7.7077157e-06 
2.0232396e-03 9.6605727e-06 -1.4602030e-05 
2.0255109e-03 1.1667992e-07 -5.0204346e-07 
2.0077599e-03 3.2933810e-06 -4.2375336e-06 
2.0232568e-03 4.4758789e-07 1.2720039e-06 
2.0230808e-03 4.4996187e-07 -1.3151009e-06 
2.0183504e-03 -3.6013496e-06 1.0210408e-06 
2.0145602e-03 5.9175081e-06 -5.4672200e-06 
2.0070081e-03 2.3358962e-06 9.0560889e-06 
1.9929470e-03 6.0071952e-06 -2.5188226e-06 
2.0000001e-03 0.0000000e+00 0.0000000e+00 
2.0210731e-03 1.0480587e-05 -1.1713897e-05 
2.0250864e-03 3.6760150e-06 -6.9881480e-06 
2.0258888e-03 2.3772454e-07 6.0366426e-07 
2.0000001e-03 0.0000000e+00 0.0000000e+00 
2.0254843e-03 9.8213732e-06 -1.1288482e-05 
2.0270338e-03 2.7357642e-06 -5.2845248e-06 
2.0168379e-03 -1.7675058e-06 -4.4534536e-06 
2.0261293e-03 1.8914033e-06 -1.7266210e-06 
2.0169613e-03 1.5032704e-06 -3.8947405e-06 
2.0000001e-03 0.0000000e+00 0.0000000e+00 
2.0239321e-03 1.8538539e-07 -1.7722199e-08 
2.0170463e-03 7.8680368e-06 -7.1998311e-06 
2.0228603e-03 7.3612164e-06 -8.5099982e-06 
2.0228955e-03 4.1700946e-06 -5.4604761e-06 
1.9861693e-03 1.7371411e-05 1.3719261e-05 
2.0221395e-03 1.1889445e-06 -2.3700829e-06 
2.0034595e-03 1.8905454e-05 -1.1172605e-05 
2.0245463e-03 2.1114784e-06 -1.6850533e-06 
2.0019712e-03 1.5768360e-06 -2.0481426e-07 
2.0262769e-03 1.2308012e-06 -2.4209507e-07 
1.9763510e-03 1.1179503e-05 -7.0442566e-06 
2.0052255e-03 5.3366293e-06 -8.2197121e-06 
2.0254059e-03 9.1031670e-06 -8.4118192e-06 
2.0260934e-03 3.1615325e-06 -2.0286025e-06 
2.0137399e-03 -7.3266165e-06 1.7909172e-06 
2.0266217e-03 6.4396827e-06 -5.6820845e-06 
2.0181595e-03 -1.6625497e-06 -1.4096571e-06 
2.0250189e-03 1.5702144e-06 -1.2794071e-06 
2.0251435e-03 4.8510105e-06 -4.2338220e-06 
1.9925979e-03 5.4342595e-06 3.2014702e-06 
2.0204599e-03 1.3793975e-08 -2.8178363e-06 
2.0000001e-03 0.0000000e+00 0.0000000e+00 
2.0111690e-03 3.8899921e-06 -2.3555315e-06 
2.0237220e-03 6.8528680e-06 -6.9172424e-06 
2.0250839e-03 3.2098371e-06 -2.3242453e-06 
2.0264061e-03 2.6814241e-06 -1.2513661e-06 
2.0157890e-03 -1.8979952e-06 9.5551741e-07 
1.9828849e-03 2.3121469e-05 1.1196599e-05 
2.0236555e-03 8.5104176e-07 -2.1920789e-06 
1.9358220e-03 3.7911788e-05 1.1671472e-05 
2.0255668e-03 8.0075733e-06 -6.4339320e-06 
2.0221407e-03 3.8734806e-06 -3.9039583e-06 
2.0261542e-03 4.5823494e-06 -2.5326965e-06 
2.0242298e-03 5.4886636e-06 -4.6430514e-06 
2.0172477e-03 -3.8840708e-06 -3.8194068e-07 
2.0000001e-03 0.0000000e+00 0.0000000e+00 
2.0185963e-03 -3.6793822e-06 4.4918278e-07 
2.0054735e-03 8.6739728e-06 -1.6241764e-06 
2.0602993e-03 -4.3286465e-05 -2.0898578e-05 
2.0254287e-03 3.0127992e-06 -1.9190140e-06 
2.0257083e-03 6.6099133e-06 -4.2944393e-06 
2.0251193e-03 4.5900592e-06 -3.1083578e-06 
2.0240252e-03 3.2267469e-06 -2.7363624e-06 
2.0000001e-03 0.0000000e+00 0.0000000e+00 
2.0223625e-03 7.8099065e-06 -5.5673590e-06 
1.9806386e-03 1.0682336e-05 -4.3990958e-06 
2.0242534e-03 7.0836868e-06 -5.9903391e-06 
2.0104526e-03 6.0960465e-06 -8.6437950e-08 
2.0181527e-03 6.9652228e-06 -4.1995377e-06 
2.0227626e-03 4.4439327e-07 -3.0376111e-06 
1.9920720e-03 1.7725421e-05 4.2532524e-06 
2.0261956e-03 4.1084490e-06 -1.8247227e-06 
2.0194557e-03 4.3297450e-06 -2.8875468e-06 
2.0257621e-03 5.4542329e-06 -2.7628266e-06 
2.0249712e-03 7.8153571e-06 -5.3816839e-06 
2.0249912e-03 6.7984893e-06 -4.4453432e-06 
2.0000001e-03 0.0000000e+00 0.0000000e+00 
2.0226177e-03 -2.1628686e-05 -6.6121279e-06 
2.0243623e-03 5.7616694e-06 -3.8405424e-06 
2.0194650e-03 2.0712750e-06 -2.1018557e-06 
2.0154794e-03 7.0366445e-06 -1.1129230e-06 
2.0189432e-03 -1.0585409e-06 -2.1593985e-06 
2.0224941e-03 3.5946548e-06 -3.2962200e-06 
2.0220829e-03 -5.3749892e-07 -3.2163500e-06 
2.0253782e-03 4.2329029e-06 -2.4347080e-06 
1.9936718e-03 1.7054452e-05 6.1425044e-06 
2.0221509e-03 6.2950139e-06 -3.3788303e-06 
2.0247521e-03 6.8665740e-06 -4.4714870e-06 
2.0250482e-03 7.0307397e-06 -3.7064492e-06 
2.0000001e-03 0.0000000e+00 0.0000000e+00 
2.0240413e-03 4.9450559e-06 -3.4960553e-06 
2.0183646e-03 8.4212033e-06 -1.7226412e-06 
2.0029359e-03 1.4739476e-05 4.7444178e-06 
2.0256983e-03 5.1967090e-06 -2.2613003e-06 
2.0250678e-03 4.1038561e-06 -2.9999503e-06 
2.0122402e-03 -1.9808667e-05 -2.9851753e-06 
2.0252743e-03 6.0428197e-06 -2.6985692e-06 
2.0000001e-03 0.0000000e+00 0.0000000e+00 
2.0000001e-03 0.0000000e+00 0.0000000e+00 
2.0246352e-03 7.2876860e-06 -4.1319063e-06 
2.0182871e-03 -1.6056090e-05 -9.8051187e-06 
2.0247756e-03 2.9997734e-06 -3.5618932e-06 
2.0241989e-03 6.5983031e-06 -3.8023038e-06 
2.0070656e-03 3.1674915e-06 -1.3120921e-06 
2.0248725e-03 6.1175788e-06 -3.1645247e-06 
2.0227223e-03 7.3033393e-06 -3.1743796e-06 
2.0198796e-03 -6.1929204e-06 -1.2776044e-05 
1.9977109e-03 7.2764096e-06 5.3248045e-06 
2.0246529e-03 6.5016798e-06 -3.6088177e-06 
2.0251174e-03 5.2067649e-06 -2.6496859e-06 
2.0223616e-03 -1.0509661e-05 -1.0091930e-05 
2.0253519e-03 -5.1365919e-06 -4.7665390e-06 
2.0000001e-03 0.0000000e+00 0.0000000e+00 
2.0246960e-03 6.3292409e-06 -3.4783334e-06 
2.0238548e-03 5.6052622e-06 -2.1659462e-06 
2.0215716e-03 -6.8430477e-06 -6.7688798e-06 
2.0249642e-03 5.8918918e-06 -2.3998568e-06 
2.0244613e-03 7.0036062e-06 -3.2609789e-06 
2.0239521e-03 -9.3172148e-06 -8.2993765e-06 
2.0246604e-03 6.5102995e-06 -2.6786759e-06 
2.0244799e-03 6.7396782e-06 -3.1259051e-06 
2.0000001e-03 0.0000000e+00 0.0000000e+00 
2.0000001e-03 0.0000000e+00 0.0000000e+00 
2.0131718e-03 -1.8089163e-06 5.1596076e-06 
2.0246371e-03 6.1480619e-06 -3.1512361e-06 
2.0133909e-03 1.3561053e-05 7.3004480e-06 
2.0240857e-03 5.2152432e-06 -5.3886060e-07 
2.0277405e-03 2.2252432e-05 -1.3473386e-06 
2.0000001e-03 0.0000000e+00 0.0000000e+00 
2.0199874e-03 -2.2424153e-06 -4.0890855e-06 
2.0252899e-03 5.3286522e-06 -3.2465418e-06 
2.0244785e-03 6.5733434e-06 -3.0903846e-06 
2.0262192e-03 3.4810039e-06 -4.0818086e-06 
2.0197092e-03 6.2502377e-06 -6.9083439e-06 
2.0168475e-03 5.7269958e-06 3.3877734e-06 
2.0259155e-03 1.0351558e-06 -2.9035441e-06 
2.0244597e-03 6.1550472e-06 -2.9236510e-06 
2.0245502e-03 5.8963392e-06 -2.7380286e-06 
2.0000001e-03 0.0000000e+00 0.0000000e+00 
2.0236271e-03 -5.3478761e-06 -1.1325926e-05 
2.0246296e-03 7.0971528e-06 -2.5288762e-06 
2.0260469e-03 -2.4697574e-06 -5.7674761e-06 
2.0251560e-03 6.4595174e-06 -2.6409098e-06 
2.0277591e-03 1.2849023e-06 -4.1634066e-06 
2.0274185e-03 -4.9766209e-06 -6.6473440e-06 
2.0241244e-03 8.3955692e-06 -1.0417866e-06 
2.0250543e-03 6.3193165e-06 -3.0697452e-06 
2.0156482e-03 1.2909513e-05 6.2233698e-06 
2.0096479e-03 -3.5947942e-05 -6.4009788e-07 
2.0204608e-03 -3.8589301e-06 -8.9626728e-06 
2.0225856e-03 1.1039040e-05 1.5626603e-06 
2.0221625e-03 7.7218101e-06 1.6930522e-06 
2.0264466e-03 5.7727702e-06 -2.9732614e-06 
2.0000001e-03 0.0000000e+00 0.0000000e+00 
2.0253987e-03 -8.2028273e-06 -9.6220465e-06 
2.0151008e-03 -9.5773048e-06 -3.8389944e-06 
2.0244811e-03 5.9152976e-06 -2.7615688e-06 
1.9532088e-03 1.0222057e-04 2.4697229e-05 
2.0239288e-03 6.6103494e-06 -2.5393433e-06 
2.0252869e-03 5.3969816e-06 -3.5561418e-06 
2.0240601e-03 6.3872244e-06 -2.3889736e-06 
2.0241521e-03 6.2463632e-06 -2.7113831e-06 
2.0277880e-03 5.0003446e-06 -2.5922866e-06 
2.0245106e-03 5.8412115e-06 -3.1200982e-06 
2.0287891e-03 -2.3339719e-06 -6.0381167e-06 
2.0241260e-03 -5.9878062e-06 -6.4748033e-06 
2.0208876e-03 1.2740209e-05 4.5773277e-06 
2.0084251e-03 2.6954001e-05 -1.2526351e-07 
2.0264464e-03 8.1065737e-06 -1.5962331e-06 
2.0251214e-03 6.0276247e-06 -2.1644707e-06 
2.0236785e-03 6.4936248e-06 -2.4227088e-06 
2.0269933e-03 -7.9735482e-06 -8.3023697e-06 
2.0288564e-03 1.9342613e-06 -4.1853164e-06 
2.0243095e-03 4.7317162e-06 8.7569919e-07 
2.0246916e-03 5.5650098e-06 -2.4395963e-06 
2.0241102e-03 5.9005893e-06 -2.4843980e-06 
2.0148135e-03 2.1011529e-05 9.9200433e-06 
2.0282813e-03 -8.8070459e-07 -5.5132505e-06 
2.0237162e-03 6.1437313e-06 -2.5903184e-06 
2.0270469e-03 9.3546769e-06 -1.8572955e-07 
2.0301791e-03 8.7928822e-07 -5.6734339e-06 
2.0239146e-03 1.1863987e-05 2.9951646e-06 
2.0238915e-03 5.7912816e-06 -2.2731961e-06 
2.0303582e-03 -3.1834038e-06 -6.9427765e-06 
2.0231628e-03 6.4398978e-06 -2.1498709e-06 
2.0287633e-03 7.4450627e-06 -2.4390924e-06 
2.0222061e-03 1.7220098e-05 5.8787027e-06 
2.0243258e-03 5.1248630e-06 -2.0987804e-06 
2.0231316e-03 6.5372637e-06 -2.2422460e-06 
2.0279842e-03 7.9614347e-06 -1.9295241e-07 
2.0301181e-03 2.3067735e-06 -4.3098967e-06 
2.0303894e-03 4.1939620e-06 -4.2331726e-06 
2.0241747e-03 5.8918440e-06 -2.3855409e-06 
2.0295570e-03 7.8394123e-06 -1.5220302e-06 
2.0251332e-03 6.0234961e-06 -2.0711968e-06 
2.0268774e-03 6.0775315e-06 -3.9667843e-06 
2.0259542e-03 6.8586287e-06 -2.4687438e-06 
2.0291912e-03 5.5483242e-06 -4.5401589e-06 
2.0308546e-03 3.8358467e-06 -5.3421509e-06 
2.0233323e-03 5.9626404e-06 -2.2735890e-06 
2.0318828e-03 4.1544965e-07 -6.7140545e-06 
2.0275540e-03 7.2994244e-06 -2.8822399e-06 
2.0237325e-03 5.0768299e-06 -1.7316936e-06 
2.0249814e-03 1.5255312e-05 4.8963238e-06 
2.0269712e-03 1.1355110e-05 2.1512110e-06 
2.0271048e-03 9.5138239e-06 5.4280474e-07 
2.0229695e-03 6.1941796e-06 -2.2976967e-06 
2.0230012e-03 5.7628567e-06 -1.7810895e-06 
2.0314511e-03 5.0630474e-06 -4.0683649e-06 
2.0261218e-03 6.0464386e-06 -1.4441542e-06 
2.0262206e-03 6.9671260e-06 -5.3055913e-07 
2.0292040e-03 1.1582785e-05 1.2111863e-06 
2.0224054e-03 6.1767059e-06 -1.8100443e-06 
2.0244403e-03 6.4255260e-06 -3.0740057e-06 
2.0307829e-03 7.6389788e-06 -3.5406308e-06 
2.0280571e-03 8.3395589e-06 -2.0369312e-06 
2.0256881e-03 5.2529854e-06 -1.4970577e-06 
2.0233791e-03 5.0032404e-06 -1.5229609e-06 
2.0242066e-03 4.6420605e-06 -1.5718932e-06 
2.0231809e-03 6.0008992e-06 -2.5395643e-06 
2.0221893e-03 6.3533544e-06 -1.8595957e-06 
2.0327973e-03 3.7520310e-06 -6.2887957e-06 
2.0240883e-03 4.2219758e-06 -1.3289676e-06 
2.0270494e-03 7.5516705e-06 -2.0765103e-06 
2.0230415e-03 5.4800748e-06 -1.8009088e-06 
2.0309789e-03 6.1363521e-06 -5.2103242e-06 
2.0280343e-03 1.3435362e-05 3.2642281e-06 
2.0321722e-03 7.1616432e-06 -4.0362465e-06 
2.0295423e-03 1.0623467e-05 -1.1836713e-07 
2.0256618e-03 4.2011047e-06 -1.2011944e-06 
2.0288506e-03 1.0425759e-05 1.3860030e-06 
2.0308369e-03 1.1012396e-05 -5.6133678e-07 
2.0291051e-03 9.5894738e-06 -6.4704886e-07 
2.0221001e-03 5.9542226e-06 -1.8725934e-06 
2.0246997e-03 3.6525137e-06 -1.0579907e-06 
2.0233996e-03 4.0555387e-06 -1.0323645e-06 
2.0250143e-03 5.5884079e-06 -1.7245720e-06 
2.0300795e-03 9.0862086e-06 -2.5796178e-06 
2.0327291e-03 6.2929430e-06 -5.8999590e-06 
2.0217069e-03 5.6497597e-06 -1.3249042e-06 
2.0321074e-03 8.8024017e-06 -3.8160347e-06 
2.0222841e-03 4.8106617e-06 -9.8010037e-07 
2.0296290e-03 1.2462838e-05 2.4544902e-06 
2.0306841e-03 7.7619607e-06 -4.8934880e-06 
2.0229807e-03 3.9879046e-06 -8.2501629e-07 
2.0213057e-03 6.0452753e-06 -1.4404142e-06 
2.0285707e-03 7.7028708e-06 -4.1283533e-06 
2.0284916e-03 8.1449261e-06 -7.0323381e-07 
2.0261491e-03 6.7528849e-06 -3.5028359e-06 
2.0238743e-03 3.1406855e-06 -6.6640854e-07 
2.0233407e-03 4.8427182e-06 -1.4514354e-06 
2.0296606e-03 9.2723176e-06 8.3002192e-07 
2.0262508e-03 4.4237886e-06 -8.0279744e-07 
2.0310706e-03 1.1027856e-05 -9.8395356e-07 
2.0294171e-03 8.8783827e-06 -2.8040149e-06 
2.0246918e-03 4.0797827e-06 -9.9048611e-07 
2.0223171e-03 4.3630012e-06 -8.9730315e-07 
2.0323794e-03 8.2571078e-06 -5.4828879e-06 
2.0255763e-03 6.3578614e-06 -2.0859377e-06 
2.0317754e-03 9.5827645e-06 -3.6708159e-06 
2.0213579e-03 5.5137921e-06 -1.3296185e-06 
2.0277337e-03 4.4793410e-06 -4.6680000e-07 
2.0273258e-03 6.5902100e-06 -1.1650678e-06 
2.0290508e-03 6.3790508e-06 1.3480908e-07 
2.0231586e-03 2.9098005e-06 -3.1537903e-07 
2.0302637e-03 1.1290729e-05 1.5798996e-06 
2.0222242e-03 3.6262159e-06 -3.4236265e-07 
2.0210647e-03 4.9085470e-06 -7.1481190e-07 
2.0230126e-03 5.2501273e-06 -2.0026455e-06 
2.0300823e-03 8.7181206e-06 -4.5772690e-06 
2.0292087e-03 8.8925308e-06 -1.6648299e-06 
2.0217919e-03 5.1329539e-06 -1.3327736e-06 
2.0204608e-03 5.4225552e-06 -8.6476030e-07 
2.0258769e-03 5.4698298e-06 -1.1520938e-06 
2.0232422e-03 4.4328049e-06 -1.1471292e-06 
2.0316334e-03 9.3407753e-06 -5.1175202e-06 
2.0308464e-03 1.0745232e-05 -2.9157499e-07 
2.0235241e-03 1.8628791e-06 3.3187895e-08 
2.0313018e-03 1.0182266e-05 -3.3122453e-06 
2.0257109e-03 1.5007473e-06 -2.4865733e-07 
2.0301181e-03 7.9593001e-06 7.6460969e-07 
2.0271242e-03 7.6044071e-06 -2.0734442e-06 
2.0224042e-03 2.8427175e-06 -7.8420847e-08 
2.0310129e-03 9.5820424e-06 9.9085480e-07 
2.0206529e-03 4.7291978e-06 -6.6723487e-07 
2.0227057e-03 2.9499583e-06 -2.3994414e-07 
2.0290739e-03 9.0407966e-06 -4.2021138e-06 
2.0228997e-03 1.7530696e-06 3.2816993e-07 
2.0205118e-03 4.0954992e-06 -8.4754163e-08 
2.0281055e-03 5.7627067e-06 -6.7521751e-07 
2.0242906e-03 8.0879187e-07 2.0605134e-07 
2.0269321e-03 7.8403846e-06 -3.4489594e-06 
2.0259051e-03 2.3138698e-06 -2.6357580e-07 
2.0216156e-03 2.4229353e-06 4.5546477e-07 
2.0244811e-03 6.1317965e-06 -2.2224631e-06 
2.0197537e-03 4.6050532e-06 -1.7220798e-07 
2.0282418e-03 8.3156101e-06 -2.2728370e-06 
2.0210729e-03 3.5118744e-06 -6.3326638e-08 
2.0305593e-03 1.0138115e-05 -2.9406146e-06 
2.0306474e-03 1.0008489e-05 -4.7033645e-06 
2.0241754e-03 4.0623113e-06 -7.5056494e-07 
2.0305270e-03 6.1250989e-06 5.2485080e-07 
2.0278487e-03 1.2470558e-06 -7.8886401e-08 
2.0234038e-03 7.4860850e-07 5.2464583e-07 
2.0226040e-03 1.3086574e-06 6.1488117e-07 
2.0300092e-03 7.4186028e-06 -2.6672687e-08 
2.0303645e-03 9.5057030e-06 -1.0078642e-06 
2.0311179e-03 7.9654419e-06 1.0876112e-06 
2.0281693e-03 8.9926489e-06 -3.7612060e-06 
2.0200391e-03 3.8329126e-06 6.2880211e-08 
2.0230568e-03 2.5107101e-06 -8.3605478e-08 
2.0296476e-03 2.7947065e-06 1.6355470e-07 
2.0200890e-03 3.1212737e-06 5.9420682e-07 
2.0287104e-03 7.4704567e-06 -1.1348214e-06 
2.0226608e-03 6.5779619e-07 8.6603711e-07 
2.0216897e-03 3.8854641e-06 -7.0348148e-07 
2.0268881e-03 -5.2136733e-07 1.9155122e-07 
2.0236608e-03 5.7929708e-07 5.9688983e-07 
2.0297668e-03 9.6158483e-06 -2.6822979e-06 
2.0260080e-03 2.6327243e-06 -8.6195094e-08 
2.0295584e-03 1.0052901e-05 -4.1737630e-06 
2.0216533e-03 1.0335685e-06 1.1336700e-06 
2.0205330e-03 3.2336925e-06 1.3796668e-07 
2.0191560e-03 3.6835511e-06 5.6541995e-07 
2.0232645e-03 -4.4710248e-07 9.9438000e-07 
2.0309307e-03 4.0032892e-06 5.2341034e-07 
2.0297014e-03 5.9697927e-06 -9.6557926e-09 
2.0256713e-03 -1.5172574e-06 5.7669115e-07 
2.0312637e-03 5.7994034e-06 7.4711841e-07 
2.0298765e-03 7.5737726e-06 -5.8058311e-07 
2.0269724e-03 8.2692031e-06 -3.1310051e-06 
2.0221442e-03 1.0529081e-07 1.3859845e-06 
2.0241775e-03 -1.7557470e-07 8.0918556e-07 
2.0228561e-03 -3.7631824e-07 1.3180518e-06 
2.0253169e-03 4.3834921e-06 -6.9827843e-07 
2.0197823e-03 2.0945668e-06 1.2699952e-06 
2.0195248e-03 2.8259208e-06 8.4743590e-07 
2.0225062e-03 -4.0384182e-07 1.3540550e-06 
2.0288876e-03 8.7477774e-06 -2.1357164e-06 
2.0248576e-03 6.2731324e-06 -2.0158511e-06 
2.0283586e-03 9.4515744e-06 -3.6511130e-06 
2.0276527e-03 4.6393761e-06 -4.2842331e-07 
2.0229686e-03 4.1867797e-06 -7.7943707e-07 
2.0266406e-03 5.9039035e-06 -1.3304589e-06 
2.0187360e-03 2.6268106e-06 1.3033920e-06 
2.0234780e-03 1.3553047e-06 4.5594436e-07 
2.0310350e-03 1.6327535e-06 4.7505961e-07 
2.0241772e-03 -2.1400328e-06 1.1449947e-06 
2.0208489e-03 4.5878352e-07 1.7519392e-06 
2.0258653e-03 -8.0126171e-07 6.8777780e-07 
2.0230762e-03 -1.5119389e-06 1.3840358e-06 
2.0296578e-03 3.4308550e-06 2.0256698e-07 
2.0313007e-03 3.2942908e-06 7.9939792e-07 
2.0212110e-03 -2.0621110e-07 2.0331038e-06 
2.0259463e-03 7.2135349e-06 -2.4018361e-06 
2.0196124e-03 1.0776424e-06 1.9552363e-06 
2.0287733e-03 -3.3422227e-06 5.4721738e-07 
2.0281186e-03 7.4004242e-06 -1.6368964e-06 
2.0221153e-03 -1.0842077e-06 2.0149860e-06 
2.0291517e-03 5.3514723e-06 -1.1855690e-07 
2.0300308e-03 -1.7283346e-06 5.3565731e-07 
2.0223605e-03 -1.3184120e-06 1.6992243e-06 
2.0208058e-03 1.3258797e-06 1.0719286e-06 
2.0191499e-03 1.5871768e-06 1.7298920e-06 
2.0272024e-03 8.5024321e-06 -2.8752263e-06 
2.0200445e-03 5.1678711e-07 2.0096493e-06 
2.0255051e-03 -3.0828519e-06 1.4500872e-06 
2.0185024e-03 1.5219358e-06 2.0857622e-06 
2.0229958e-03 -2.4619303e-06 1.6919080e-06 
2.0256736e-03 -4.6100686e-06 1.0759851e-06 
2.0197215e-03 6.4989479e-07 1.9781558e-06 
2.0284189e-03 1.2214506e-06 4.6976115e-07 
2.0312811e-03 -1.1165330e-06 6.2040363e-07 
2.0267779e-03 -8.4741009e-07 7.5132198e-07 
2.0315626e-03 3.9024670e-07 6.2479654e-07 
2.0244948e-03 8.6168103e-07 5.8747520e-07 
2.0295843e-03 2.3395896e-06 3.6246698e-07 
2.0248659e-03 5.5428300e-06 -1.5525353e-06 
2.0195863e-03 2.1714021e-08 2.6464311e-06 
2.0273114e-03 5.5428422e-06 -9.9954366e-07 
2.0217835e-03 1.1793979e-06 7.4475156e-07 
2.0222946e-03 -1.9844265e-06 2.4589469e-06 
2.0237402e-03 -3.2200014e-06 2.2841234e-06 
2.0220103e-03 -2.0361906e-06 1.9862202e-06 
2.0191025e-03 5.4324647e-07 2.4248095e-06 
2.0235069e-03 -3.2514824e-06 2.1876335e-06 
2.0256294e-03 2.5302691e-06 -4.7138336e-08 
2.0260441e-03 6.9268149e-06 -2.0850264e-06 
2.0211465e-03 -1.3769492e-06 2.8021082e-06 
2.0294115e-03 -2.3942328e-06 8.7741256e-07 
2.0231926e-03 2.9735684e-06 -2.9495720e-07 
2.0208498e-03 -1.3001921e-06 2.8609657e-06 
2.0227216e-03 -2.1610363e-06 2.2897282e-06 
2.0241525e-03 -4.3233877e-06 1.6179371e-06 
2.0219972e-03 -2.3565663e-06 2.7823091e-06 
2.0215595e-03 -2.0732796e-06 3.0162771e-06 
2.0227123e-03 -3.2215148e-06 1.8574135e-06 
2.0184040e-03 4.2324370e-07 2.8585671e-06 
2.0315107e-03 -3.4181999e-06 5.9185777e-07 
2.0210845e-03 -5.8601256e-07 1.8810435e-06 
2.0300765e-03 -1.8709848e-06 8.0040013e-07 
2.0216093e-03 -2.0713655e-06 2.8606557e-06 
2.0316956e-03 -2.4211856e-06 7.3169065e-07 
2.0266920e-03 3.6755680e-06 -3.2174125e-07 
2.0196748e-03 -8.5000812e-07 3.3284161e-06 
2.0289589e-03 -7.1022782e-06 8.0627569e-07 
2.0240701e-03 3.6764136e-06 -6.5571749e-07 