# vtk DataFile Version 4.0
vtk output
ASCII
DATASET UNSTRUCTURED_GRID
POINTS 5594 float
1.7278741e-01 2.0202686e-01 -4.2275867e-01 
0.0000000e+00 1.5451001e-01 -4.7553000e-01 
3.4493744e-02 1.5272529e-01 -3.0253688e-01 
0.0000000e+00 2.9389000e-01 -4.0450999e-01 
-4.2618904e-04 1.5245918e-02 -4.9978960e-01 
3.5025135e-01 7.0985798e-03 -3.5624251e-01 
2.3188825e-01 3.8361830e-01 -2.2110890e-01 
3.8241147e-04 3.9830011e-01 -3.0133820e-01 
2.2244842e-01 -5.5263810e-02 -2.5635600e-01 
-1.7385617e-01 1.7755154e-01 -4.3277141e-01 
1.6627699e-01 -1.8452626e-01 -4.3351790e-01 
0.0000000e+00 -1.5451001e-01 -4.7553000e-01 
4.3270752e-01 1.8058592e-01 -1.7166717e-01 
8.4106825e-02 -1.8000962e-01 -2.4371530e-01 
0.0000000e+00 4.7553000e-01 -1.5451001e-01 
2.7342174e-02 3.4267578e-01 -2.2245368e-02 
2.3186558e-01 1.3791464e-01 2.7187718e-03 
-1.7525320e-01 4.5841757e-02 -1.6361825e-01 
2.7460873e-01 -1.0412077e-01 -9.8888241e-02 
-2.4647327e-01 3.6755154e-01 -2.3364593e-01 
-1.6777059e-01 -1.6504008e-01 -4.4091350e-01 
-1.7560974e-01 1.7363444e-01 -7.2903521e-02 
2.4310000e-02 6.7099999e-03 1.4040000e-02 
0.0000000e+00 -2.9389000e-01 -4.0450999e-01 
3.0472863e-01 3.9533973e-01 5.2775601e-03 
4.0843490e-01 2.8837368e-01 3.1486405e-03 
1.5386488e-01 4.7529611e-01 -3.1269971e-02 
4.3867677e-01 -1.6792913e-01 -1.7029260e-01 
4.7045553e-01 1.6926910e-01 -7.5975666e-05 
0.0000000e+00 5.0000000e-01 0.0000000e+00 
-3.6055714e-01 -4.0768543e-03 -3.4607163e-01 
4.9966392e-01 1.6931603e-02 -2.9231317e-04 
-5.1750846e-02 2.6215160e-01 1.1168156e-01 
2.2796749e-01 -3.8448286e-01 -2.2351921e-01 
-1.6431721e-01 4.7222102e-01 1.3359460e-02 
-2.9758817e-01 1.7547159e-01 -2.0907776e-02 
0.0000000e+00 -4.0450999e-01 -2.9389000e-01 
4.7553000e-01 -1.5451001e-01 0.0000000e+00 
-1.2401652e-01 -2.2949034e-01 -1.2623106e-02 
-4.3945202e-01 1.6612412e-01 -1.7029795e-01 
4.4558439e-01 1.6056468e-01 1.6189493e-01 
3.1340744e-02 -3.0619779e-01 -8.3087999e-03 
-3.0666897e-01 3.9357495e-01 -1.5609821e-02 
2.2806236e-01 -3.5850242e-02 1.8869299e-01 
4.3361928e-04 4.7854477e-01 1.4479476e-01 
4.0450999e-01 -2.9389000e-01 0.0000000e+00 
2.2829174e-01 3.8499245e-01 2.2230461e-01 
-2.3236930e-01 -3.7328270e-01 -2.3831901e-01 
-3.1653479e-01 -1.2533958e-01 -1.7581981e-03 
-3.9950573e-01 3.0056462e-01 -4.8161517e-03 
0.0000000e+00 -4.7553000e-01 -1.5451001e-01 
2.9718730e-01 -4.0106139e-01 1.9761723e-02 
6.6820368e-02 -2.6424932e-01 1.2072120e-01 
-4.3525663e-01 -1.9488327e-01 -1.5249369e-01 
4.3112800e-01 -1.8444909e-01 1.7161250e-01 
-1.9298826e-01 8.3926981e-03 2.2640923e-01 
-4.7987500e-01 1.4047083e-01 8.7086001e-04 
-2.8083241e-02 1.1095767e-01 3.2940763e-01 
0.0000000e+00 4.0450999e-01 2.9389000e-01 
1.5451001e-01 -4.7553000e-01 0.0000000e+00 
-2.4843587e-01 3.7051532e-01 2.2664742e-01 
-4.9944553e-01 3.7272967e-02 2.4821858e-03 
3.8344935e-01 -1.3230663e-02 3.2176703e-01 
0.0000000e+00 -5.0000000e-01 0.0000000e+00 
3.2974746e-02 -1.8547155e-01 2.8852680e-01 
-4.7045553e-01 -1.6926910e-01 7.5975666e-05 
-4.2958584e-01 1.9089191e-01 1.6880547e-01 
-1.6005206e-01 -4.7365469e-01 -7.9056639e-03 
-4.1200271e-01 -2.8327382e-01 1.1387094e-03 
-2.9938766e-01 -3.9967492e-01 1.7676376e-02 
5.3971115e-04 2.9439917e-01 4.0414011e-01 
1.7111073e-01 1.8361558e-01 4.3138978e-01 
2.4889809e-01 -3.6122569e-01 2.4123603e-01 
0.0000000e+00 -4.7553000e-01 1.5451001e-01 
-4.4281876e-01 -1.6665071e-01 1.6235574e-01 
-1.1744137e-03 1.5257804e-01 4.7615752e-01 
-1.6569670e-01 1.7316532e-01 4.3874595e-01 
1.6937257e-01 -1.6773286e-01 4.3926108e-01 
0.0000000e+00 -4.0450999e-01 2.9389000e-01 
-2.2910210e-01 -3.8269907e-01 2.2563997e-01 
-3.4712565e-01 -5.2010310e-03 3.5949698e-01 
0.0000000e+00 0.0000000e+00 5.0000000e-01 
0.0000000e+00 -2.9389000e-01 4.0450999e-01 
0.0000000e+00 -1.5451001e-01 4.7553000e-01 
-1.6998206e-01 -1.8761861e-01 4.3051061e-01 
4.2652434e-01 -2.4710590e-01 -8.9253977e-02 
4.2689493e-01 -2.4693255e-01 8.6351410e-02 
8.4959663e-02 -2.5040063e-01 4.2541754e-01 
-8.9598775e-02 -2.3179978e-01 4.3530834e-01 
-8.9656301e-02 -2.4129985e-01 -4.2992979e-01 
9.3201384e-02 -2.4486531e-01 -4.2673153e-01 
-4.3023592e-01 -2.4285039e-01 8.4212042e-02 
-4.3338802e-01 -2.3996335e-01 -7.5895928e-02 
8.8073775e-02 2.3702814e-01 -4.3259966e-01 
-9.5835842e-02 2.4394085e-01 -4.2683363e-01 
4.2737174e-01 2.4451624e-01 9.1829367e-02 
4.3675610e-01 2.3264302e-01 -7.9518586e-02 
-4.2733091e-01 2.4438226e-01 -9.2238255e-02 
-4.2373934e-01 2.4885583e-01 9.6556194e-02 
-8.0846660e-02 2.5629061e-01 4.2252868e-01 
7.8762569e-02 2.6063427e-01 4.2052200e-01 
8.0223843e-02 -4.8847237e-01 -6.8536587e-02 
8.1959821e-02 -4.8924190e-01 6.1096143e-02 
-8.4285222e-02 -4.8900592e-01 -6.0352691e-02 
-7.8814723e-02 -4.8900020e-01 6.6321895e-02 
8.4863015e-02 4.8679104e-01 -7.3632307e-02 
-8.5227020e-02 4.8521903e-01 -8.3958812e-02 
7.8361101e-02 4.8666167e-01 8.1998073e-02 
-8.2126744e-02 4.8658264e-01 7.8193150e-02 
8.7024175e-02 8.3905540e-02 -4.8638821e-01 
-4.8461992e-01 1.0059936e-01 -8.0679357e-02 
4.8365337e-01 -1.0221247e-01 -8.5379839e-02 
-8.4997147e-02 -8.0407545e-02 -4.8751456e-01 
4.8505110e-01 9.3638897e-02 8.5426971e-02 
-8.1968397e-02 8.9277774e-02 4.8646510e-01 
8.4014788e-02 -9.5508754e-02 4.8519239e-01 
-4.8522055e-01 -9.3678273e-02 8.5543871e-02 
4.8522055e-01 9.3678273e-02 -8.5543871e-02 
8.5543871e-02 9.3678273e-02 4.8522055e-01 
-8.6877666e-02 8.9659080e-02 -4.8556283e-01 
-4.8522055e-01 9.3678273e-02 8.5543871e-02 
8.5640565e-02 -8.4667504e-02 -4.8652023e-01 
-8.4619083e-02 -8.9143373e-02 4.8592982e-01 
4.8505110e-01 -9.3638897e-02 8.5426971e-02 
-4.8505110e-01 -9.3638897e-02 -8.5426971e-02 
8.8633060e-02 3.0845940e-01 -3.8081470e-01 
-3.7343359e-01 3.1073758e-01 -1.0994717e-01 
3.6925319e-01 -3.2465369e-01 -8.1208743e-02 
-9.3960769e-02 -3.1209284e-01 -3.7658784e-01 
3.7952396e-01 3.0711710e-01 9.7819731e-02 
-9.2778005e-02 3.0983192e-01 3.7862125e-01 
9.1932751e-02 -3.1116441e-01 3.7783715e-01 
-3.8001987e-01 -3.0635130e-01 9.8742560e-02 
2.0858052e-01 -4.4584355e-01 -8.7569594e-02 
1.1957239e-01 4.4157532e-01 -1.9945501e-01 
1.2252935e-01 -4.3550083e-01 2.1102926e-01 
-1.1677179e-01 -4.4147328e-01 -2.0139892e-01 
-2.1038264e-01 4.3997052e-01 -1.0704827e-01 
2.2561848e-01 4.3006861e-01 1.1784273e-01 
2.6944134e-01 -3.9461288e-01 -1.4729959e-01 
2.0268175e-01 -4.4169128e-01 1.1373933e-01 
1.2122244e-01 -3.8974515e-01 2.8781834e-01 
-1.2282643e-01 -4.4017223e-01 2.0059799e-01 
-1.1892125e-01 -3.9948192e-01 -2.7511096e-01 
1.1801480e-01 -4.4152400e-01 -2.0054424e-01 
-1.9945501e-01 -4.4157532e-01 1.1957239e-01 
-2.0300281e-01 -4.4332039e-01 -1.0681129e-01 
1.1936171e-01 3.9923513e-01 -2.7531049e-01 
-1.2373918e-01 4.3855631e-01 -2.0349923e-01 
2.8270149e-01 3.9558926e-01 1.1380669e-01 
2.0849109e-01 4.3711612e-01 -1.2081905e-01 
-2.7237591e-01 3.9363396e-01 -1.4405322e-01 
-2.0922562e-01 4.3683740e-01 1.2065531e-01 
-1.2144074e-01 4.4044358e-01 2.0087710e-01 
1.2179635e-01 4.4297472e-01 1.9481036e-01 
1.3753797e-01 -4.8965167e-02 -4.7836158e-01 
4.8075604e-01 -4.5643389e-02 1.3094772e-01 
4.8080710e-01 4.5647681e-02 -1.3112177e-01 
1.3659368e-01 5.6610528e-02 4.7783270e-01 
-4.8075604e-01 -4.5643389e-02 -1.3094772e-01 
-1.3294624e-01 -5.4663360e-02 4.7929916e-01 
-1.3826816e-01 6.4399958e-02 -4.7671032e-01 
-4.7909960e-01 4.8064202e-02 1.3582227e-01 
-2.8290966e-01 -3.9665154e-01 1.1052034e-01 
-1.1907471e-01 4.0278319e-01 2.7081290e-01 
-3.8152370e-01 -3.1395727e-01 -6.6205524e-02 
9.2828006e-02 3.1049195e-01 3.7803757e-01 
2.0759925e-01 2.8100416e-01 -3.5573798e-01 
3.6237499e-01 2.8261727e-01 1.9470836e-01 
3.4514999e-01 -2.8986159e-01 -2.1260354e-01 
-2.0214687e-01 -2.8452402e-01 -3.5615894e-01 
3.1657693e-01 -1.8873411e-01 -3.2567310e-01 
3.1994551e-01 1.9234808e-01 -3.2013375e-01 
-9.0067707e-02 3.1066090e-01 -3.7879285e-01 
-3.7694865e-01 3.1356460e-01 8.7472476e-02 
3.6653832e-01 -3.2389724e-01 9.4298907e-02 
8.7730266e-02 -3.1243825e-01 -3.7772968e-01 
3.8459662e-01 3.0138955e-01 -9.7013451e-02 
-8.9684084e-02 -3.0498913e-01 3.8342941e-01 
-3.2416752e-01 -2.1217468e-01 3.0400041e-01 
3.2584202e-01 -1.8969189e-01 3.1576636e-01 
1.8633588e-01 -4.8031430e-03 -4.6224993e-01 
4.0260005e-01 9.3725927e-02 -2.7562490e-01 
4.6633065e-01 0.0000000e+00 1.7754662e-01 
4.1053095e-01 -9.8815441e-02 2.6446450e-01 
1.8743357e-01 -2.6651006e-03 4.6159875e-01 
3.2440168e-01 1.8327853e-01 3.2087818e-01 
-4.6633065e-01 0.0000000e+00 -1.7754662e-01 
-3.2130918e-01 1.8219639e-01 -3.2468221e-01 
-1.8220873e-01 -1.1802559e-02 -4.6400505e-01 
-3.2556346e-01 -1.7512436e-01 -3.2453778e-01 
-1.7754662e-01 0.0000000e+00 4.6633065e-01 
-3.1372145e-01 2.0272541e-01 3.2017428e-01 
-4.6330947e-01 3.8465394e-03 1.8384817e-01 
-2.6109165e-01 -9.9501595e-02 4.1242841e-01 
-2.0666645e-01 2.9148513e-01 -3.4779426e-01 
-3.7079471e-01 2.7501029e-01 1.9036724e-01 
3.9634332e-01 -1.0129796e-01 -2.8130567e-01 
4.6338558e-01 4.5294068e-03 -1.8373643e-01 
-3.3507890e-01 -2.3750882e-01 -2.7642593e-01 
2.7806371e-01 2.4065925e-01 3.3146980e-01 
4.6322623e-01 -1.6794822e-01 9.2832342e-02 
4.3908313e-02 -3.3803549e-01 3.6339867e-01 
-7.9041168e-02 -1.7317384e-01 4.6384099e-01 
-4.6888947e-02 -3.4153584e-01 -3.5984045e-01 
9.0050690e-02 -1.7499371e-01 -4.6115389e-01 
-4.6402928e-01 -1.7058560e-01 -8.3606414e-02 
4.2961869e-02 3.1685606e-01 -3.8243109e-01 
-1.2459625e-01 2.4775176e-01 -4.1543850e-01 
-9.1721095e-02 1.6749118e-01 -4.6380463e-01 
4.6410465e-01 1.6125974e-01 -1.0168054e-01 
-4.6455023e-01 1.6478287e-01 9.2906654e-02 
-4.5544378e-02 3.3720446e-01 3.6395848e-01 
1.2301745e-01 2.4084443e-01 4.2029810e-01 
8.3985016e-02 1.8558845e-01 4.5850909e-01 
1.5711302e-01 -4.5266750e-01 -1.3966927e-01 
-1.6537803e-01 -4.5475584e-01 -1.2505995e-01 
-1.5738004e-01 -4.4889835e-01 1.5089478e-01 
1.6166607e-01 4.5197132e-01 -1.3720497e-01 
1.6280836e-01 4.4517758e-01 1.5599456e-01 
-1.5299961e-01 4.4907033e-01 1.5486348e-01 
1.5893625e-01 4.3774825e-02 -4.7192317e-01 
8.2373977e-02 1.6339377e-01 -4.6682578e-01 
[...]
POINT_DATA 5594
FIELD FieldData 2
DISTANCE 1 5594  float
1.7278741e-01
1.0946799e-17
3.4493744e-02
-1.2703171e-17
-4.2618904e-04
3.5025135e-01
2.3188825e-01
3.8241147e-04
2.2244842e-01
-1.7385617e-01
1.6627699e-01
5.4245495e-17
4.3270752e-01
8.4106825e-02
-6.4114822e-17
2.7342174e-02
2.3186558e-01
-1.7525320e-01
2.7460873e-01
-2.4647327e-01
-1.6777059e-01
-1.7560974e-01
2.4310000e-02
5.4245495e-17
3.0472863e-01
4.0843490e-01
1.5110528e-01
4.3867677e-01
4.7045553e-01
0.0000000e+00
-3.6055714e-01
4.9966392e-01
-5.1750846e-02
2.2796749e-01
-1.6431721e-01
-2.9758817e-01
2.7051695e-17
4.7553000e-01
-1.2401652e-01
-4.3945202e-01
4.4558439e-01
3.1340744e-02
-3.0666897e-01
2.2806236e-01
4.3361928e-04
4.0450999e-01
2.2829174e-01
-2.3236930e-01
-3.1653479e-01
-3.9950573e-01
-8.6821870e-18
2.9718730e-01
6.6820368e-02
-4.3525663e-01
4.3112800e-01
-1.9298826e-01
-4.7987500e-01
-2.8083241e-02
1.9840795e-16
1.5451001e-01
-2.4843587e-01
-4.9944553e-01
3.8344935e-01
0.0000000e+00
3.2974746e-02
-4.7045553e-01
-4.2958584e-01
-1.6005206e-01
-4.1200271e-01
-2.9938766e-01
5.3971115e-04
1.7111073e-01
2.4889809e-01
-8.5795954e-19
-4.4281876e-01
-1.1744137e-03
-1.6569670e-01
1.6937257e-01
-9.6682663e-17
-2.2910210e-01
-3.4712565e-01
0.0000000e+00
2.4753532e-17
3.0553339e-17
-1.6998206e-01
4.1506630e-01
4.1611031e-01
8.2503095e-02
-8.7241374e-02
-8.7544829e-02
9.0587161e-02
-4.2033225e-01
-4.2328584e-01
8.5832313e-02
-9.2794769e-02
4.1615137e-01
4.2642364e-01
-4.1609856e-01
-4.1090453e-01
-7.8378469e-02
7.6510325e-02
7.7642284e-02
7.9932317e-02
-8.2216494e-02
-7.8814723e-02
8.2824476e-02
-8.2528159e-02
7.6278582e-02
-8.2126744e-02
8.3343357e-02
-4.6803674e-01
4.6683925e-01
-8.1587858e-02
4.6792099e-01
-7.9055294e-02
8.0414064e-02
-4.6801215e-01
4.8522055e-01
8.2222849e-02
-8.6877666e-02
-4.6799645e-01
8.2698174e-02
-8.1011452e-02
4.8505110e-01
-4.6794361e-01
8.3674587e-02
-3.5461807e-01
3.5175753e-01
-8.8888913e-02
3.6135760e-01
-8.8167779e-02
8.7376028e-02
-3.6190569e-01
2.0139663e-01
1.1570707e-01
1.1828899e-01
-1.1270557e-01
-2.0320150e-01
2.1746689e-01
2.6075411e-01
1.9571085e-01
1.1690316e-01
-1.2282643e-01
-1.1892125e-01
1.1407968e-01
-1.9275489e-01
-1.9621027e-01
1.1574104e-01
-1.1958695e-01
2.7281135e-01
2.0145434e-01
-2.6328903e-01
-2.0218164e-01
-1.1730384e-01
1.1711349e-01
1.2894143e-01
4.5244935e-01
4.5248526e-01
1.2824924e-01
-4.5250118e-01
-1.2500948e-01
-1.2940373e-01
-4.5070767e-01
-2.7304596e-01
-1.1592191e-01
-3.6601046e-01
8.8301897e-02
1.9754720e-01
3.4651548e-01
3.2968941e-01
-2.0214687e-01
2.9672128e-01
2.9976928e-01
-8.5830942e-02
-3.5926226e-01
3.4808776e-01
8.4099725e-02
3.6651990e-01
-8.4522925e-02
-3.0305243e-01
3.0560282e-01
1.7371956e-01
3.8804850e-01
4.3595886e-01
3.9585575e-01
1.7362918e-01
3.0394360e-01
-4.3603027e-01
-3.0141857e-01
-1.6897899e-01
-3.0553716e-01
-1.6465552e-01
-2.9356107e-01
-4.3301553e-01
-2.5182942e-01
-2.0666645e-01
-3.5443264e-01
3.8000631e-01
4.3308973e-01
-3.1297347e-01
2.5895384e-01
4.6322623e-01
4.2693816e-02
-7.9041168e-02
-4.5099799e-02
9.0050690e-02
-4.5594105e-01
4.1916855e-02
-1.1975361e-01
-9.1721095e-02
4.6410465e-01
-4.5507792e-01
-4.2443454e-02
1.1839326e-01
8.1889950e-02
1.5059389e-01
-1.5850121e-01
-1.5104261e-01
1.5461840e-01
1.5645686e-01
-1.4689922e-01
1.4802881e-01
8.2373977e-02
-4.4266942e-01
-4.5516303e-01
4.4458434e-01
4.5425275e-01
-1.3928561e-01
-8.5396208e-02
4.4453159e-01
4.6146560e-01
-1.4233604e-01
-8.4180914e-02
1.4348646e-01
8.4194958e-02
-4.4002873e-01
-4.5595151e-01
4.6808165e-01
7.7348448e-02
-8.6064845e-02
-4.6514636e-01
8.5824355e-02
-8.1373647e-02
4.6801600e-01
-4.6803224e-01
1.5947556e-01
-3.5281062e-01
3.0384606e-01
-1.5167138e-01
3.0865285e-01
-1.9608308e-01
2.1030766e-01
-3.3285594e-01
2.4746947e-01
6.0119838e-02
6.0630299e-02
-6.3528873e-02
-2.4271752e-01
2.5327605e-01
1.5661386e-01
2.7963886e-01
1.5347736e-01
-1.1650362e-01
1.1917906e-01
-2.3892523e-01
-2.5684577e-01
-1.4881253e-01
-1.1723038e-01
2.7567410e-01
-3.0654970e-01
-2.6033527e-01
-5.7062469e-02
1.1812520e-01
-3.0321553e-01
-1.5485758e-01
-3.3618784e-01
4.2660519e-02
3.0839819e-01
3.5934979e-01
2.4956317e-01
-1.2183417e-01
-2.3107524e-01
3.6792341e-01
2.5780764e-01
2.2932176e-01
2.9195583e-01
-1.5516603e-01
-4.3747548e-02
-3.0786586e-01
3.4238151e-01
2.0894758e-01
4.1819718e-02
3.4167114e-01
-1.9898710e-01
-4.2942535e-02
-3.7812379e-01
-3.6119705e-01
2.3731339e-01
3.0214417e-01
1.7045492e-01
4.1340521e-01
3.6670086e-01
4.3611386e-01
3.3890623e-01
4.0196636e-01
1.7845218e-01
2.6279345e-01
2.3046896e-01
3.6501488e-01
-4.3588260e-01
-4.0129134e-01
-3.7176898e-01
-3.5669202e-01
-2.6896435e-01
-1.6698936e-01
-3.9022139e-01
-3.0301657e-01
-1.6280778e-01
-2.3655331e-01
-3.0002227e-01
-3.8464388e-01
-4.3587795e-01
-3.2327881e-01
-2.5027648e-01
-2.4487045e-01
-3.6636120e-01
3.1265613e-01
3.8877657e-01
4.3122262e-01
2.0462100e-01
1.7484596e-01
-1.7718527e-01
-1.6681367e-01
1.7351076e-01
-2.8373119e-01
-2.6616219e-01
2.5259763e-01
-2.6578310e-01
2.4440069e-01
-5.8614809e-02
5.9337188e-02
-2.5311005e-01
-6.4921319e-02
2.4331342e-01
-2.3627652e-01
6.0685564e-02
-2.8369915e-01
-3.0079502e-01
2.6755548e-01
2.4945727e-01
2.5182533e-01
2.4555358e-01
3.6419737e-01
-2.3213114e-01
-3.8477576e-01
2.6223779e-01
2.9862177e-01
-1.3707043e-01
-2.6210409e-01
-3.4088501e-01
-2.5233659e-01
1.8075831e-01
2.4100392e-01
2.1310161e-01
6.4246939e-04
-3.0357661e-18
-2.1457508e-01
1.7780916e-17
2.1478961e-01
-2.1830621e-01
-1.7347235e-17
-2.0839535e-01
1.5163116e-01
1.2513496e-01
-2.7316228e-01
4.1913784e-01
-4.0867162e-01
-4.3729942e-02
4.0763948e-02
4.2048946e-02
-4.2835977e-02
1.1236237e-01
4.3090664e-02
1.2592803e-01
-3.9325036e-02
4.1642353e-02
-3.9588194e-02
3.9783012e-02
6.3385367e-02
-4.2842712e-02
4.5755498e-02
-4.3125153e-02
-4.4329718e-02
-1.1697031e-02
4.1754290e-02
5.7554869e-03
-4.2545523e-02
-1.2249429e-01
1.0051043e-01
-6.3664883e-02
6.2602676e-02
6.1611339e-02
8.7833539e-02
-5.9522070e-02
-1.2299177e-01
5.7732601e-02
-5.4774590e-02
5.6513034e-02
-3.2216780e-02
-2.5851226e-01
3.2715745e-02
1.3627984e-01
-1.1562371e-01
-1.5433927e-01
2.3208709e-02
-5.7516366e-02
-1.7267334e-03
-1.5586878e-01
-1.2293797e-01
9.3367815e-02
-1.1724851e-01
2.0104064e-02
-8.2285911e-02
-7.9356350e-02
8.8440143e-02
-1.2084140e-01
1.5798455e-01
-1.2434165e-01
1.0869014e-01
1.5597428e-01
-2.1692720e-01
2.1168870e-01
-1.6646685e-01
-1.0605104e-01
2.1661061e-01
-2.5871015e-01
-1.8305948e-01
-1.0534047e-01
8.8653527e-02
-3.1077143e-02
1.2061345e-01
1.2309070e-01
6.4634420e-02
4.1795664e-02
-4.2452741e-02
-2.2289217e-02
1.1935610e-01
-1.3013051e-01
1.5296473e-01
2.0428792e-02
1.3372004e-01
-6.2788203e-02
-1.8089829e-02
9.6661910e-02
4.0539920e-02
1.9469358e-02
-1.0964774e-01
-9.4459005e-02
-2.2309029e-02
1.1195905e-01
-3.8042918e-02
3.7110165e-02
-1.1989550e-01
3.5819176e-03
5.9031837e-02
9.7949691e-02
4.1779529e-02
4.1619975e-02
9.7610041e-02
7.9645969e-02
1.9672230e-02
-1.2205831e-01
-1.3667363e-01
-4.6559803e-02
8.6051688e-02
2.4893905e-01
-1.4298503e-01
1.8194480e-01
3.4749724e-02
-2.4162725e-02
1.8044610e-01
1.2650317e-01
-6.0429357e-02
-7.5739495e-02
-1.1099000e-02
7.7272467e-02
-1.8201914e-01
1.2124334e-01
1.2392932e-01
-1.1889925e-01
9.6440218e-02
1.1512658e-01
1.1342409e-01
-9.0465531e-02
-1.1398062e-01
4.8803098e-02
-1.1546702e-01
-1.1583956e-01
-5.9621554e-02
-9.2106596e-02
8.2529835e-02
-7.8093588e-02
1.7722429e-01
2.1407552e-01
-3.9988097e-02
-1.6403770e-01
-8.5449882e-02
1.2191464e-01
1.0478214e-02
-1.3010160e-02
-6.1926033e-02
-3.8873527e-02
1.0386409e-01
6.2419657e-02
1.7719284e-02
-4.4025622e-02
-1.7486516e-02
-9.8658688e-03
-9.6587121e-02
1.0345231e-01
6.1119750e-02
-1.2235796e-01
-1.8139794e-01
1.2593251e-01
-1.0159460e-01
-1.0243672e-01
1.0864365e-01
4.5004655e-03
-6.2875316e-02
-4.0913079e-02
-9.4113775e-02
4.6856161e-02
4.8126835e-02
-4.4119924e-02
1.1463235e-01
1.8474691e-01
4.1417073e-02
8.3059601e-02
8.4650189e-02
-8.0350846e-02
2.7128631e-02
-6.5227821e-02
-6.5728620e-02
1.3827586e-01
2.1341746e-01
-2.2281884e-01
1.2154686e-01
4.5655970e-03
-3.0206377e-02
-1.5618037e-01
-1.9957045e-02
-1.1145122e-02
5.2564768e-03
-3.0648515e-02
2.6892044e-02
3.0474514e-02
-6.4317800e-02
4.2420264e-02
-3.1091243e-02
3.8855728e-02
2.3158565e-02
-2.1823484e-02
-5.8438152e-02
-2.0916458e-02
2.1265546e-02
3.0649189e-02
-5.1950939e-02
-2.0766186e-02
-3.1781157e-03
-6.6301778e-02
2.0837344e-02
-3.7846394e-02
-5.9924673e-02
1.7399177e-02
6.1331116e-02
-2.3288932e-02
1.7783470e-02
6.2833712e-02
-1.6773229e-02
6.2671162e-02
2.1455407e-02
-4.6882752e-02
-2.5629317e-02
-6.7049742e-02
-2.0613030e-02
6.3275419e-02
-1.3772661e-03
6.4952239e-02
-3.4076076e-02
-2.0712426e-02
-6.5835938e-02
-1.6059498e-01
1.7516019e-02
4.2864415e-03
2.1527300e-02
2.0711139e-02
5.9638899e-02
4.1909922e-02
3.8390603e-02
-9.7314112e-02
3.8010675e-02
-5.8304090e-02
-6.2106200e-02
4.3517128e-02
2.2869360e-02
-5.5098633e-04
-1.2053695e-01
3.9678980e-02
-4.1288476e-02
2.3617961e-02
3.1774995e-01
-9.6991807e-02
-5.8911089e-02
-6.3194782e-02
5.6846734e-02
-1.6453035e-01
1.1818881e-01
-1.3812812e-01
-1.2260132e-01
-4.4260629e-02
-1.4289776e-02
2.0550581e-02
6.9581807e-02
2.4183260e-02
-6.4826250e-02
-4.1469943e-02
-5.1890742e-03
1.6493471e-01
-1.0608017e-01
-9.9243313e-02
3.4724566e-01
3.0427745e-02
-4.8253611e-02
-1.0078435e-02
-2.0559605e-02
1.9108793e-02
3.0686649e-02
-1.1346569e-01
6.1207823e-02
-4.1786212e-02
3.9011803e-02
-6.6459291e-02
6.7710169e-02
8.2029952e-03
2.0147081e-02
8.4571764e-03
6.1478816e-02
-6.3307807e-02
-2.1355795e-02
6.1153237e-02
9.6428515e-03
6.7527443e-02
5.6393944e-02
-1.1335663e-02
-2.0088887e-02
-1.3786119e-02
8.0533668e-02
-2.2973485e-02
5.9093628e-02
-6.1450567e-02
-3.1697907e-02
-5.8729877e-03
3.4121666e-02
4.4521760e-02
2.1537840e-02
1.7716100e-02
1.2856260e-01
1.0099237e-02
-2.8658288e-02
-3.4393538e-02
-2.9056817e-01
-8.0837391e-02
1.0867206e-02
-1.1071927e-02
-4.0254459e-02
2.2285722e-02
-6.2289783e-03
-2.1739772e-02
3.3061329e-02
1.0026930e-02
5.9979267e-02
1.0650059e-02
1.5431559e-01
-4.5521993e-02
-2.1939931e-02
-7.0904605e-02
-2.1640232e-02
5.2718330e-02
2.1533492e-01
-4.1676328e-02
-3.4697585e-02
-9.4345436e-03
-6.0466446e-02
-2.1094861e-02
-1.6185600e-02
1.2801443e-02
2.0841084e-02
-1.6230967e-02
3.4353562e-02
-1.0727543e-02
3.3686180e-02
-6.3519605e-02
-3.1021537e-02
-1.1544345e-02
3.2139491e-02
1.0172763e-02
-3.1247364e-02
2.9832322e-02
-1.3133887e-02
-6.0773116e-02
1.0045957e-02
1.0078435e-02
-1.0447256e-02
-1.0078435e-02
-7.3319497e-03
1.0339491e-02
2.9826529e-02
-3.2238949e-02
-3.0951507e-02
3.0878326e-02
-2.2675244e-02
6.9409132e-02
4.8169300e-02
-3.1474046e-02
3.1992111e-02
3.1471997e-02
4.4848386e-02
2.9455626e-02
2.0715034e-02
-7.7558212e-02
6.4713913e-03
-8.7551117e-02
7.3497612e-03
-5.5707064e-03
1.0484283e-01
1.6606495e-02
7.6049813e-03
2.9462472e-02
-5.7684619e-02
3.1509060e-02
7.5176358e-02
1.6701134e-02
-1.8087160e-02
3.1014407e-02
-6.9415821e-03
2.9561358e-02
3.3407610e-02
-1.3615418e-02
-3.3310000e-02
-1.3665020e-02
5.2073147e-02
-3.3329260e-02
-5.1985927e-02
1.4703638e-02
-3.0100286e-02
-3.0741107e-02
-3.2888908e-02
2.9616626e-02
9.4514424e-03
4.1661609e-02
-2.5494209e-02
-3.6595441e-02
-7.6839244e-03
-4.1309997e-02
4.4217169e-02
3.1326219e-02
2.1120820e-02
-3.1723049e-02
7.7424748e-03
-1.6572468e-02
-5.5332226e-03
1.0744743e-03
2.9613525e-02
1.4889906e-02
1.5156165e-01
2.8625699e-02
-2.8196650e-02
-6.8717487e-02
-5.0966728e-02
-1.0045957e-02
2.6569447e-02
-2.8988058e-02
-1.5785456e-02
-2.9428972e-02
-1.5754161e-02
6.4506821e-02
-1.6969839e-02
-2.0746971e-02
-3.7927661e-02
-7.6641180e-03
-5.9087384e-03
-4.0176172e-02
-3.2842040e-01
5.3061116e-03
3.6260791e-02
7.6641180e-03
-1.0631997e-02
-9.4353489e-04
4.2392574e-02
1.3492120e-02
2.7843591e-02
2.4951473e-01
1.0651654e-02
-2.6378857e-02
4.6888184e-02
-1.9134225e-02
-2.4406390e-02
5.1609818e-02
3.2623302e-02
2.1345934e-02
2.6584316e-02
-1.4735335e-02
4.6520154e-03
1.7361233e-02
3.6101971e-02
-4.1324686e-02
-4.2518109e-02
6.0539063e-02
9.0677338e-03
3.0664286e-02
2.6746437e-02
-1.5206370e-02
-1.4744345e-02
6.2512271e-03
6.9306292e-02
8.8762790e-03
1.6348504e-02
2.4470647e-03
7.4102931e-02
1.4986489e-02
-1.4939477e-02
-3.8415922e-03
2.2861788e-02
6.2000327e-02
-4.1023485e-02
3.3809906e-03
-1.4973066e-02
9.7327577e-03
5.0459942e-03
5.1587287e-02
-2.9496592e-02
-1.5955491e-02
-3.8476314e-03
-5.1896248e-02
2.5856793e-02
-2.2028185e-02
1.4314136e-02
-3.6331550e-03
-1.0897170e-02
3.7045375e-02
8.4822802e-03
3.4792211e-03
4.6434510e-03
2.3225768e-02
-3.4285836e-02
-2.1954143e-02
-4.6142485e-02
-5.4535702e-02
-5.0487142e-02
-7.6879114e-02
-5.6476910e-03
-1.3322792e-02
-3.4596408e-03
-9.1289561e-03
-1.4624269e-02
-3.4314510e-03
-1.3165240e-01
1.3726982e-02
-1.7612727e-02
5.5085402e-02
1.5657413e-01
-1.5533544e-02
1.6845785e-02
-1.8770978e-02
1.5223719e-02
4.1479641e-03
-2.2211578e-02
2.2950601e-02
-2.7801162e-02
3.8719389e-03
1.6435731e-04
-2.3971971e-02
-2.1121783e-02
1.5177739e-02
-2.1253144e-02
-7.2588183e-02
-2.7251793e-03
5.9326753e-02
4.1596195e-01
3.8767543e-03
8.0661140e-03
4.1899256e-02
6.9773190e-02
-5.0254348e-03
-4.1712625e-03
-8.3985059e-03
6.4774014e-02
-2.7088537e-03
2.6240908e-03
3.5881537e-03
-4.7911289e-03
6.7126498e-02
6.0616597e-03
-5.2722129e-03
5.3267782e-03
1.0223359e-01
9.3689866e-02
-2.1242805e-02
-3.6311127e-02
1.7930369e-03
1.6044740e-02
-1.9078078e-02
-1.5470848e-02
5.4932106e-03
1.8769290e-02
-3.2072455e-02
-5.3406735e-03
3.6019351e-02
2.2696747e-01
5.4955419e-02
3.3830366e-01
-5.2861337e-02
-4.2593010e-02
-1.1608099e-02
-1.8184920e-03
-1.9261619e-03
-2.7059384e-03
-5.0060400e-03
1.5029564e-01
-9.2952261e-03
-4.5623057e-02
6.3146637e-03
1.1286196e-02
-1.0588425e-02
-1.6828492e-02
-2.3001386e-02
2.1631589e-02
-1.6871542e-02
4.3657785e-03
-8.7855654e-03
-7.1032401e-03
6.2016683e-05
1.0908482e-02
8.5666757e-03
-8.2071386e-03
8.1041250e-03
-9.8132612e-03
9.9101290e-02
-3.1164305e-02
-1.2502855e-02
5.2944366e-03
-5.2944366e-03
3.1226246e-02
1.6569962e-01
-1.0775669e-02
5.4354770e-03
5.0412234e-02
-5.2447007e-03
-1.2815270e-01
1.9261619e-03
-5.2904743e-03
-1.3262604e-02
-2.5622625e-02
9.5133986e-03
-1.6331585e-02
-1.5028467e-02
5.0964039e-02
1.4315782e-02
-5.3523374e-03
5.3523374e-03
-5.4401089e-03
-7.7593081e-02
5.4463758e-03
8.1649728e-02
-2.7724286e-03
1.0788368e-02
-1.2073112e-02
-5.0459942e-03
1.4478163e-02
-1.1554060e-02
9.3315877e-03
4.9157836e-03
-1.1172818e-02
5.7036234e-03
-2.7302040e-03
4.7637830e-03
9.8513672e-03
1.3219330e-02
-3.2987885e-02
-1.2121081e-01
-5.4285070e-03
-6.1241412e-03
1.0107297e-02
2.5238839e-03
-8.7179765e-03
-1.8708251e-02
2.7179352e-03
-1.9205566e-02
1.0173525e-02
-1.3266733e-02
-2.0799808e-01
-1.5213988e-02
1.1903801e-02
1.1298079e-02
5.3267782e-03
-1.3304284e-02
-5.8741067e-03
-2.7144698e-03
2.5238839e-03
3.9595589e-03
-5.8839368e-03
5.4117450e-03
-2.6768979e-03
2.6768979e-03
2.7251793e-03
-2.7237942e-02
-7.4966904e-03
6.7490889e-03
7.2776871e-03
1.1794074e-02
1.4864177e-02
1.1910910e-02
8.0163665e-03
4.3419655e-03
-2.5238839e-03
-2.7220375e-03
-2.5130291e-03
1.2801766e-01
-5.6766532e-03
2.2902177e-03
2.8598229e-03
2.0424835e-03
-7.8498479e-03
5.3957282e-03
4.6699475e-03
3.7607086e-01
-2.7855152e-02
-3.0573609e-01
2.9985840e-02
-3.7936032e-02
-3.8821667e-01
-8.5779369e-02
9.1945067e-02
3.5679820e-01
-3.8727999e-01
2.4311079e-02
7.9575107e-03
1.1608703e-02
1.2155000e-02
4.8685685e-02
-5.2351244e-02
-4.6476904e-02
-5.5509456e-02
-2.1256294e-02
1.6503807e-02
8.3524752e-03
1.6194417e-03
1.6650136e-03
1.0930921e-02
1.2155000e-02
5.9495084e-02
-1.0517877e-01
8.7752923e-02
3.6502999e-01
-5.9205893e-02
-1.6415946e-02
-9.7908854e-02
-3.0410280e-02
-9.3976883e-03
-7.9706386e-02
-2.8024357e-02
-3.2348847e-01
1.9681897e-02
2.7886000e-02
-1.0340307e-02
5.1264428e-02
3.8673900e-02
1.3934270e-01
-4.2680532e-01
-3.3972744e-02
-1.6278815e-01
-3.0032257e-02
3.6471382e-02
6.1968607e-03
-3.5486510e-01
4.3410558e-02
-4.0630141e-01
1.1753819e-01
5.3814590e-02
-1.6472165e-01
1.9170584e-01
1.4920099e-01
-2.4839606e-02
-2.0474002e-01
9.1606192e-02
8.1973650e-02
3.3409365e-02
2.3886725e-02
5.7266250e-02
2.1730243e-01
-2.5764758e-02
2.8074617e-02
1.2503824e-02
-2.1156971e-01
-7.4687921e-03
-9.8965056e-02
1.6561650e-02
9.2257738e-02
8.9193257e-03
1.1930829e-01
3.2866959e-02
-5.6540584e-03
-3.3145130e-02
-3.0696925e-02
-4.2009425e-01
-2.4438709e-02
-1.7163320e-01
3.2941301e-03
-1.9233499e-01
3.3986550e-02
4.0894296e-02
-1.3773394e-01
4.4988453e-02
-2.8353570e-02
2.2196470e-01
2.4519648e-01
-4.0039003e-01
-1.4431938e-03
-2.1363165e-02
-8.5088566e-02
-3.0435500e-01
3.3193994e-02
4.9575448e-02
5.4987006e-02
-2.5786463e-02
-1.0625774e-01
-9.8844975e-02
-1.2621017e-01
-8.7098787e-03
-5.1818874e-02
-6.2898276e-03
-4.2798966e-01
5.9904158e-03
-7.7544823e-03
-3.3621648e-03
2.6854968e-01
-2.6139224e-02
5.4742336e-02
-4.2308885e-01
4.9613738e-03
-3.1742852e-02
1.7484292e-02
1.4689642e-03
3.2816541e-01
4.5918277e-04
2.0502952e-01
-1.8484500e-01
-1.9213393e-02
-5.6505926e-02
-5.0904129e-02
3.3522809e-01
-4.3300974e-01
7.8968601e-03
-3.4065370e-02
-3.6582895e-02
7.6181196e-02
-2.0986214e-02
2.7704501e-01
6.3585497e-02
5.5346885e-03
2.8994907e-02
4.2883013e-03
1.1814135e-01
-4.5159563e-01
3.0791726e-02
7.7837184e-03
-1.3642359e-01
1.8447541e-02
-1.7755422e-01
-2.3729917e-04
6.0418382e-02
3.6378101e-02
1.9413333e-01
5.4064564e-02
3.3982253e-01
2.7654825e-02
-3.8941160e-02
-9.2472188e-02
1.7647775e-03
3.1415748e-03
8.5078143e-03
2.3283420e-02
-2.1776672e-01
-3.0456650e-01
-3.4713697e-02
1.6232949e-02
1.4520721e-01
1.2168992e-02
-4.0790647e-02
-4.9612135e-02
-6.2984936e-03
6.9645099e-02
4.4228364e-02
-1.1552797e-01
8.6542750e-03
1.8919449e-02
1.3810094e-02
-3.6955114e-02
-3.2492489e-02
-1.8710177e-02
-1.2075962e-01
2.0498440e-01
3.2919627e-01
-1.3672869e-01
5.1031142e-02
-2.8457671e-01
-2.0069394e-01
1.8661220e-01
-2.9412031e-01
1.7735630e-01
-2.3471432e-02
9.0074174e-02
2.9207847e-01
-1.4222765e-01
1.1786500e-01
-3.1593692e-02
5.1472679e-02
-2.5226496e-02
-1.1886795e-02
-3.2692377e-02
1.5348160e-01
7.2540052e-02
2.7800235e-01
-1.0162462e-01
1.8795522e-01
7.2881892e-02
1.2560959e-01
1.9495644e-02
7.2329207e-03
6.5920256e-02
3.6063814e-01
4.4624820e-02
-4.5260377e-02
8.6259559e-02
-3.7732549e-02
1.9352926e-01
-6.6746650e-03
1.1393886e-02
4.7378078e-02
7.5214161e-03
1.3109000e-01
3.1034512e-02
-5.1848367e-02
1.4911990e-02
-3.8623717e-01
8.1911925e-03
-7.2223605e-03
-7.3426240e-03
1.2739765e-02
-1.9299456e-01
-1.0128165e-01
-2.2056259e-01
3.3660012e-01
2.7691305e-01
1.1438599e-01
6.2913826e-04
-1.5844867e-02
-7.7025109e-04
-5.4788920e-03
-2.3633365e-02
-2.9752420e-02
1.0083657e-02
9.5511615e-02
2.0095982e-02
1.3385296e-03
-1.2407064e-01
3.9897501e-02
4.9466413e-02
-4.1828617e-02
2.9720348e-01
-4.0426394e-03
-2.5756920e-02
6.4348385e-02
-3.5316326e-02
2.5667299e-02
-1.0986446e-02
8.6298482e-03
-4.7184650e-02
-1.0484246e-02
3.5980691e-03
6.3515097e-02
-1.0824910e-02
1.9143071e-02
9.8087303e-02
1.0592816e-01
-9.6149534e-02
2.6934224e-01
-3.5953197e-01
-1.3517758e-01
-1.1186811e-01
-3.1617913e-02
1.0241462e-02
4.8109502e-02
2.5348270e-01
-4.8633117e-02
-4.1660860e-02
5.7024367e-02
5.8895657e-03
1.9703668e-02
2.4351230e-02
8.0390517e-03
4.0168136e-02
4.4924125e-02
-2.7327009e-02
-1.6332932e-03
8.5409544e-02
7.7505723e-02
-2.0533993e-03
2.4773173e-01
-9.0423763e-02
-1.1777157e-01
-2.2795290e-02
4.5279339e-03
1.6863856e-01
1.1860803e-01
2.9242912e-01
-3.2779418e-02
2.0874070e-03
-1.6895610e-01
7.0659719e-02
-1.7253728e-01
8.8365674e-03
-9.2706367e-02
8.5748238e-03
-3.0340752e-01
-3.5900211e-01
-3.3677146e-02
-3.4916472e-01
-2.9403967e-01
-1.2411169e-01
2.0149021e-01
-1.6180716e-02
-2.3531739e-03
4.7756694e-02
2.8301561e-01
-1.8147795e-02
-2.3334092e-03
5.5186790e-03
3.1829055e-02
-1.0435677e-01
5.9244735e-03
-7.1711428e-02
2.0598291e-01
7.8162514e-02
2.0327650e-02
2.0053400e-01
3.3584800e-02
2.5404251e-01
2.8354077e-02
-1.5796283e-02
1.7289628e-01
-1.9269370e-01
-5.4902192e-02
-1.9495000e-01
4.8029490e-02
-2.2616701e-01
-3.4657046e-02
3.2925159e-01
-3.1583023e-01
-4.2970087e-02
5.5560381e-03
-2.6219791e-01
2.3281763e-03
-2.5407443e-02
2.6583987e-01
2.8937194e-01